phonopy:
  version: "2.19.1"
  frequency_unit_conversion_factor: 15.633302
  symmetry_tolerance: 1.00000e-05

space_group:
  type: "Fm-3m"
  number: 225
  Hall_symbol: "-F 4 2 3"

supercell_matrix:
- [   2,   0,   0 ]
- [   0,   2,   0 ]
- [   0,   0,   2 ]

primitive_cell:
  lattice:
  - [    -0.000000000000000,     2.031776297295916,     2.031776297295912 ] # a
  - [     2.031776297295913,     0.000000000000002,     2.031776297295912 ] # b
  - [     2.031776297295913,     2.031776297295913,     0.000000000000000 ] # c
  points:
  - symbol: Ag # 1
    coordinates: [  0.000000000000000,  0.000000000000000,  0.000000000000000 ]
    mass: 107.868200
  reciprocal_lattice: # without 2pi
  - [    -0.246090084162045,     0.246090084162045,     0.246090084162045 ] # a*
  - [     0.246090084162045,    -0.246090084162045,     0.246090084162046 ] # b*
  - [     0.246090084162045,     0.246090084162045,    -0.246090084162046 ] # c*

unit_cell:
  lattice:
  - [    -0.000000000000000,     2.031776297295916,     2.031776297295912 ] # a
  - [     2.031776297295913,     0.000000000000002,     2.031776297295912 ] # b
  - [     2.031776297295913,     2.031776297295913,     0.000000000000000 ] # c
  points:
  - symbol: Ag # 1
    coordinates: [  0.000000000000000,  0.000000000000000,  0.000000000000000 ]
    mass: 107.868200
    reduced_to: 1

supercell:
  lattice:
  - [    -0.000000000000000,     4.063552594591831,     4.063552594591823 ] # a
  - [     4.063552594591827,     0.000000000000005,     4.063552594591823 ] # b
  - [     4.063552594591826,     4.063552594591825,     0.000000000000000 ] # c
  points:
  - symbol: Ag # 1
    coordinates: [  0.000000000000000,  0.000000000000000,  0.000000000000000 ]
    mass: 107.868200
    reduced_to: 1
  - symbol: Ag # 2
    coordinates: [  0.500000000000000,  0.000000000000000,  0.000000000000000 ]
    mass: 107.868200
    reduced_to: 1
  - symbol: Ag # 3
    coordinates: [  0.000000000000000,  0.500000000000000,  0.000000000000000 ]
    mass: 107.868200
    reduced_to: 1
  - symbol: Ag # 4
    coordinates: [  0.500000000000000,  0.500000000000000,  0.000000000000000 ]
    mass: 107.868200
    reduced_to: 1
  - symbol: Ag # 5
    coordinates: [  0.000000000000000,  0.000000000000000,  0.500000000000000 ]
    mass: 107.868200
    reduced_to: 1
  - symbol: Ag # 6
    coordinates: [  0.500000000000000,  0.000000000000000,  0.500000000000000 ]
    mass: 107.868200
    reduced_to: 1
  - symbol: Ag # 7
    coordinates: [  0.000000000000000,  0.500000000000000,  0.500000000000000 ]
    mass: 107.868200
    reduced_to: 1
  - symbol: Ag # 8
    coordinates: [  0.500000000000000,  0.500000000000000,  0.500000000000000 ]
    mass: 107.868200
    reduced_to: 1

displacements:
- atom:    1
  displacement:
    [  -0.0000000000000000,  0.0070710678118655,  0.0070710678118655 ]
  forces:
  - [   0.0000000000000034, -0.0381895351180537, -0.0381895351180511 ]
  - [  -0.0000000000000003,  0.0203436941829049,  0.0203436941829067 ]
  - [   0.0103273991705492, -0.0004407673518174,  0.0100078047270588 ]
  - [  -0.0103273991705492,  0.0100078047270413, -0.0004407673518164 ]
  - [   0.0103273991705439,  0.0100078047270520, -0.0004407673518144 ]
  - [  -0.0103273991705566, -0.0004407673518084,  0.0100078047270451 ]
  - [   0.0000000000000067, -0.0003189737544176, -0.0003189737544274 ]
  - [   0.0000000000000094, -0.0009692600609039, -0.0009692600609096 ]
